 -----------------------------------
 # CAM-B3LYP/6-31+G* opt freq=saveNM
 -----------------------------------

 --------------------------
 pCT- Geometry Optimization
 --------------------------
 Symbolic Z-matrix:
 Charge = -1 Multiplicity = 1

 SCF Done:  E(RCAM-B3LYP) =  -306.703138160     A.U. after   17 cycles
 SCF Done:  E(RCAM-B3LYP) =  -306.734444638     A.U. after   15 cycles
 SCF Done:  E(RCAM-B3LYP) =  -306.742695951     A.U. after   15 cycles
 SCF Done:  E(RCAM-B3LYP) =  -306.754846682     A.U. after   15 cycles
 SCF Done:  E(RCAM-B3LYP) =  -306.755442438     A.U. after   14 cycles
 SCF Done:  E(RCAM-B3LYP) =  -306.756679268     A.U. after   13 cycles
 SCF Done:  E(RCAM-B3LYP) =  -306.756687992     A.U. after   11 cycles
 SCF Done:  E(RCAM-B3LYP) =  -306.756688914     A.U. after   10 cycles
 Optimization completed.
    -- Stationary point found.
 Normal termination of Gaussian DV at Mon Nov  6 21:03:00 2017.

 ----------------------------------------------------------------------
 #N Geom=AllCheck Guess=TCheck SCRF=Check GenChk RCAM-B3LYP/6-31+G(d) F
 req
 ----------------------------------------------------------------------

 Structure from the checkpoint file:  "phenolate_camb3lyp_gs.chk"
 --------------------------
 pCT- Geometry Optimization
 --------------------------
 Charge = -1 Multiplicity = 1

                         Standard orientation:
 ---------------------------------------------------------------------
 Center     Atomic      Atomic             Coordinates (Angstroms)
 Number     Number       Type             X           Y           Z
 ---------------------------------------------------------------------
      1          6           0        1.072694   -0.000040    0.000030
      2          6           0        0.287930   -1.209054    0.000283
      3          6           0       -1.097984   -1.197567    0.000118
      4          6           0       -1.825341    0.000030   -0.000127
      5          6           0       -1.097907    1.197621   -0.000005
      6          6           0        0.287982    1.209031    0.000203
      7          8           0        2.343464   -0.000011   -0.000301
      8          1           0       -2.912883    0.000060   -0.000895
      9          1           0        0.834555   -2.150563    0.000041
     10          1           0       -1.634201   -2.148209   -0.000235
     11          1           0       -1.634124    2.148191   -0.000218
     12          1           0        0.834693    2.150480    0.000702
 ---------------------------------------------------------------------

 SCF Done:  E(RCAM-B3LYP) =  -306.756688914     A.U. after    1 cycles

 The electronic state is 1-A.
 Alpha  occ. eigenvalues --  -18.97104 -10.12976 -10.10336 -10.10335 -10.08690
 Alpha  occ. eigenvalues --  -10.07520 -10.07520  -0.86877  -0.74801  -0.65239
 Alpha  occ. eigenvalues --   -0.61725  -0.50361  -0.48236  -0.40734  -0.34865
 Alpha  occ. eigenvalues --   -0.34774  -0.31449  -0.28922  -0.27566  -0.24504
 Alpha  occ. eigenvalues --   -0.23662  -0.20213  -0.14010  -0.10171  -0.05762
 Alpha virt. eigenvalues --    0.15874   0.16823   0.17755   0.19740   0.19824
 Alpha virt. eigenvalues --    0.20001   0.22127   0.22214   0.22559   0.24571
 Alpha virt. eigenvalues --    0.25408   0.26141   0.26676   0.29053   0.29146

 Mulliken charges:
               1
     1  C   -0.187555
     2  C   -0.038661
     3  C   -0.187076
     4  C   -0.290843
     5  C   -0.187143
     6  C   -0.038649
     7  O   -0.751814
     8  H    0.129079
     9  H    0.144775
    10  H    0.131554
    11  H    0.131554
    12  H    0.144779
 Sum of Mulliken charges =  -1.00000

 Dipole moment (field-independent basis, Debye):
    X=             -4.8966    Y=              0.0002    Z=             -0.0004  Tot=              4.8966
 Quadrupole moment (field-independent basis, Debye-Ang):
   XX=            -66.2771   YY=            -46.1468   ZZ=            -49.1343
   XY=              0.0001   XZ=              0.0058   YZ=              0.0019

  Exact polarizability: 113.864   0.000  91.706  -0.004  -0.003  54.258
 Approx polarizability: 136.558   0.000 104.901  -0.005  -0.004  62.190

                      1                      2                      3
                      A                      A                      A
 Frequencies --    193.0429               436.2664               451.6590
 Red. masses --      5.1222                 3.2286                 5.8984
 Frc consts  --      0.1125                 0.3620                 0.7089
 IR Inten    --      1.3530                 0.0000                 0.8478

                      4                      5                      6
                      A                      A                      A
 Frequencies --    511.5325               537.4464               623.6166
 Red. masses --      2.2305                 8.0743                 6.5269
 Frc consts  --      0.3439                 1.3741                 1.4955
 IR Inten    --     28.6606                 9.2001                 0.7172

                      7                      8                      9
                      A                      A                      A
 Frequencies --    693.3876               719.4135               811.5533
 Red. masses --      1.9173                 1.5433                 1.2403
 Frc consts  --      0.5431                 0.4706                 0.4813
 IR Inten    --     36.8210                47.3610                 0.0000

                     10                     11                     12
                      A                      A                      A
 Frequencies --    840.6461               858.3166               958.5296
 Red. masses --      5.2454                 2.2394                 1.2013
 Frc consts  --      2.1840                 0.9720                 0.6503
 IR Inten    --      0.5465                39.0001                 0.3128

                     13                     14                     15
                      A                      A                      A
 Frequencies --    959.2132               990.2049              1044.2619
 Red. masses --      1.3145                 5.1241                 2.1987
 Frc consts  --      0.7126                 2.9602                 1.4126
 IR Inten    --      0.0040                48.9790                15.4857

                     16                     17                     18
                      A                      A                      A
 Frequencies --   1088.8603              1168.7613              1185.2375
 Red. masses --      1.5506                 1.0708                 1.1311
 Frc consts  --      1.0832                 0.8618                 0.9362
 IR Inten    --      5.2190                 7.7710                31.8323

                     19                     20                     21
                      A                      A                      A
 Frequencies --   1275.1346              1361.6032              1428.9737
 Red. masses --      2.7145                 1.7990                 2.4676
 Frc consts  --      2.6005                 1.9651                 2.9687
 IR Inten    --      8.5711                24.5403                82.0196

                     22                     23                     24
                      A                      A                      A
 Frequencies --   1506.3528              1578.8647              1591.1862
 Red. masses --      2.9461                 4.5271                 4.8919
 Frc consts  --      3.9387                 6.6491                 7.2975
 IR Inten    --     31.8890               322.6939                29.5575

                     25                     26                     27
                      A                      A                      A
 Frequencies --   1662.8817              3135.5875              3139.5820
 Red. masses --      6.0250                 1.0833                 1.0880
 Frc consts  --      9.8159                 6.2752                 6.3188
 IR Inten    --    461.7694                30.1999                61.1851

                     28                     29                     30
                      A                      A                      A
 Frequencies --   3181.7453              3182.5018              3193.9089
 Red. masses --      1.0896                 1.0922                 1.0952
 Frc consts  --      6.4988                 6.5175                 6.5825
 IR Inten    --     59.7481               106.0395                22.6437

 - Thermochemistry -
 -------------------
 Temperature   298.150 Kelvin.  Pressure   1.00000 Atm.
 Atom     1 has atomic number  6 and mass  12.00000

 Molecular mass:    93.03404 amu.
 Principal axes and moments of inertia in atomic units:
                           1         2         3
     Eigenvalues --   314.71076 670.20778 984.91851
           X            1.00000   0.00000   0.00002
           Y           -0.00000   1.00000   0.00002
           Z           -0.00002  -0.00002   1.00000
 This molecule is an asymmetric top.
 Rotational symmetry number  1.
 Rotational temperatures (Kelvin)      0.27522     0.12923     0.08794
 Rotational constants (GHZ):           5.73460     2.69281     1.83238
 Zero-point vibrational energy     241109.0 (Joules/Mol)
                                   57.62643 (Kcal/Mol)
 Warning -- explicit consideration of   5 degrees of freedom as
           vibrations may cause significant error
 Vibrational temperatures:    277.75   627.69   649.84   735.98   773.27
          (Kelvin)            897.25   997.63  1035.08  1167.64  1209.50
                             1234.93  1379.11  1380.09  1424.68  1502.46
                             1566.63  1681.59  1705.29  1834.63  1959.04
                             2055.97  2167.31  2271.63  2289.36  2392.52
                             4511.41  4517.16  4577.82  4578.91  4595.32

 Zero-point correction=                           0.091834 (Hartree/Particle)
 Thermal correction to Energy=                    0.097023
 Thermal correction to Enthalpy=                  0.097968
 Thermal correction to Gibbs Free Energy=         0.063014
 Sum of electronic and zero-point Energies=           -306.664855
 Sum of electronic and thermal Energies=              -306.659666
 Sum of electronic and thermal Enthalpies=            -306.658721
 Sum of electronic and thermal Free Energies=         -306.693674

                     E (Thermal)             CV                S
                      KCal/Mol        Cal/Mol-Kelvin    Cal/Mol-Kelvin
 Total                   60.883             20.248             73.565
 Electronic               0.000              0.000              0.000
 Translational            0.889              2.981             39.503
 Rotational               0.889              2.981             26.832
 Vibrational             59.106             14.286              7.230
 Vibration     1          0.635              1.850              2.198
 Vibration     2          0.797              1.391              0.838
 Vibration     3          0.810              1.357              0.791
 Vibration     4          0.867              1.224              0.630
 Vibration     5          0.892              1.167              0.571

 Optimization completed.
    -- Stationary point found.
 Normal termination of Gaussian DV at Mon Nov  6 21:03:42 2017.
