 -------------------------------------------------------------
 # CAM-B3LYP/6-31+G* TDA(Root=1) Geom=AllCheck opt freq=saveNM
 -------------------------------------------------------------

 Structure from the checkpoint file:  "phenolate_camb3lyp_tddft.chk"
 --------------------------
 pCT- Geometry Optimization
 --------------------------
 Charge = -1 Multiplicity = 1

 SCF Done:  E(RCAM-B3LYP) =  -306.756688914     A.U. after   14 cycles
 SCF Done:  E(RCAM-B3LYP) =  -306.753950307     A.U. after   14 cycles
 SCF Done:  E(RCAM-B3LYP) =  -306.753950217     A.U. after   11 cycles
 SCF Done:  E(RCAM-B3LYP) =  -306.753876506     A.U. after   10 cycles
 Optimization completed.
    -- Stationary point found.
 Normal termination of Gaussian DV at Mon Nov  6 21:17:45 2017.

 ----------------------------------------------------------------------
 #N Geom=AllCheck Guess=TCheck SCRF=Check GenChk RCAM-B3LYP TDA(FC,Read
 )/6-31+G(d) Freq
 ----------------------------------------------------------------------

 Structure from the checkpoint file:  "phenolate_camb3lyp_tddft.chk"
 --------------------------
 pCT- Geometry Optimization
 --------------------------
 Charge = -1 Multiplicity = 1

                         Standard orientation:
 ---------------------------------------------------------------------
 Center     Atomic      Atomic             Coordinates (Angstroms)
 Number     Number       Type             X           Y           Z
 ---------------------------------------------------------------------
      1          6           0        1.043766   -0.000002    0.000136
      2          6           0        0.287575   -1.241276    0.000005
      3          6           0       -1.079606   -1.218377   -0.000014
      4          6           0       -1.777479    0.000003   -0.000001
      5          6           0       -1.079597    1.218379   -0.000011
      6          6           0        0.287581    1.241277    0.000002
      7          8           0        2.296653   -0.000004   -0.000064
      8          1           0       -2.866654    0.000008   -0.000026
      9          1           0        0.850800   -2.170862   -0.000034
     10          1           0       -1.650819   -2.147787   -0.000045
     11          1           0       -1.650806    2.147793   -0.000035
     12          1           0        0.850815    2.170857   -0.000045
 ---------------------------------------------------------------------

 SCF Done:  E(RCAM-B3LYP) =  -306.753876506     A.U. after    1 cycles

 Excitation energies and oscillator strengths:

 Excited State   1:      Singlet-A      3.4047 eV  364.15 nm  f=0.0010  <S**2>=0.000
      25 -> 26        -0.69357
 This state for optimization and/or second-order correction.
 Total Energy, E(CIS/TDA) =  -306.628755106
 Copying the excited state density for this state as the 1-particle RhoCI density.

 Excited State   2:      Singlet-A      3.7898 eV  327.15 nm  f=0.0000  <S**2>=0.000
      25 -> 27         0.69295
      25 -> 29        -0.10427

 Excited State   3:      Singlet-A      3.9877 eV  310.92 nm  f=0.0168  <S**2>=0.000
      25 -> 28         0.66390
      25 -> 30        -0.19810

 The electronic state is 1-A.
 Alpha  occ. eigenvalues --  -18.97059 -10.12967 -10.10021 -10.10021 -10.08133
 Alpha  occ. eigenvalues --  -10.07230 -10.07230  -0.87818  -0.74650  -0.65665
 Alpha  occ. eigenvalues --   -0.60895  -0.50283  -0.47886  -0.40324  -0.34824
 Alpha  occ. eigenvalues --   -0.34807  -0.32170  -0.28336  -0.27652  -0.24467
 Alpha  occ. eigenvalues --   -0.23888  -0.20273  -0.14385  -0.10086  -0.05225
 Alpha virt. eigenvalues --    0.15976   0.16890   0.17781   0.19713   0.19920
 Alpha virt. eigenvalues --    0.20049   0.22279   0.22429   0.22699   0.24591
 Alpha virt. eigenvalues --    0.25495   0.26042   0.26856   0.29100   0.29231

 Mulliken charges:
               1
     1  C   -0.141623
     2  C   -0.077640
     3  C   -0.172026
     4  C   -0.301333
     5  C   -0.172026
     6  C   -0.077639
     7  O   -0.734186
     8  H    0.122565
     9  H    0.145447
    10  H    0.131507
    11  H    0.131507
    12  H    0.145448
 Sum of Mulliken charges =  -1.00000

 Dipole moment (field-independent basis, Debye):
    X=             -4.5333    Y=              0.0000    Z=              0.0001  Tot=              4.5333
 Quadrupole moment (field-independent basis, Debye-Ang):
   XX=            -65.6283   YY=            -46.0892   ZZ=            -49.1215
   XY=              0.0001   XZ=              0.0005   YZ=              0.0000

  Exact polarizability: 694.335  -0.0032137.183  -0.058   0.003 170.075
 Approx polarizability: 134.088   0.000 106.032   0.001  -0.000  62.471

                      1                      2                      3
                      A                      A                      A
 Frequencies --    190.8527               363.7817               452.7899
 Red. masses --      4.7260                 3.0436                 3.0819
 Frc consts  --      0.1014                 0.2373                 0.3723
 IR Inten    --      5.7809                 0.0001                 8.2420

                      4                      5                      6
                      A                      A                      A
 Frequencies --    453.5132               523.3248               597.3980
 Red. masses --      5.8295                 7.8891                 6.9179
 Frc consts  --      0.7064                 1.2730                 1.4546
 IR Inten    --      0.1441                51.1799               125.5769

                      7                      8                      9
                      A                      A                      A
 Frequencies --    639.6842               798.4245               812.2700
 Red. masses --      1.5837                 5.6570                 1.2509
 Frc consts  --      0.3818                 2.1248                 0.4863
 IR Inten    --     93.6546                 0.0822                 0.0000

                     10                     11                     12
                      A                      A                      A
 Frequencies --    850.1074               925.1125               957.7126
 Red. masses --      2.1489                 4.8766                 1.4153
 Frc consts  --      0.9150                 2.4590                 0.7648
 IR Inten    --     52.3791                 0.0055                78.2403

                     13                     14                     15
                      A                      A                      A
 Frequencies --   1030.6522              1037.3272              1062.4183
 Red. masses --      2.3530                 1.3282                 1.3313
 Frc consts  --      1.4726                 0.8421                 0.8853
 IR Inten    --      0.3113                 0.0000                 5.3123

                     16                     17                     18
                      A                      A                      A
 Frequencies --   1085.4291              1160.4305              1172.3616
 Red. masses --      1.5159                 1.0957                 1.1125
 Frc consts  --      1.0523                 0.8693                 0.9009
 IR Inten    --   3776.4678              1469.2285               461.6991

                     19                     20                     21
                      A                      A                      A
 Frequencies --   1297.7606              1387.3184              1446.2588
 Red. masses --      2.1588                 2.2234                 1.9600
 Frc consts  --      2.1421                 2.5213                 2.4155
 IR Inten    --     63.5076               364.7084               194.1453

                     22                     23                     24
                      A                      A                      A
 Frequencies --   1486.4440              1581.9115              1592.2403
 Red. masses --      3.6808                 3.3833                 7.1429
 Frc consts  --      4.7917                 4.9883                10.6694
 IR Inten    --    129.7593                60.8718               510.4709

                     25                     26                     27
                      A                      A                      A
 Frequencies --   1643.0047              3105.3012              3140.9896
 Red. masses --      6.1323                 1.0947                 1.0909
 Frc consts  --      9.7533                 6.2196                 6.3413
 IR Inten    --    493.9730                91.7082              1188.3766

                     28                     29                     30
                      A                      A                      A
 Frequencies --   3156.1827              3205.5902              3209.1355
 Red. masses --      1.0876                 1.0916                 1.0905
 Frc consts  --      6.3835                 6.6089                 6.6170
 IR Inten    --     35.8164                85.3578               295.1825

 - Thermochemistry -
 -------------------
 Temperature   298.150 Kelvin.  Pressure   1.00000 Atm.
 Atom     1 has atomic number  6 and mass  12.00000

 Molecular mass:    93.03404 amu.
 Principal axes and moments of inertia in atomic units:
                           1         2         3
     Eigenvalues --   326.40355 643.98957 970.39312
           X            1.00000   0.00000   0.00000
           Y           -0.00000   1.00000  -0.00000
           Z           -0.00000   0.00000   1.00000
 This molecule is an asymmetric top.
 Rotational symmetry number  1.
 Rotational temperatures (Kelvin)      0.26536     0.13450     0.08926
 Rotational constants (GHZ):           5.52917     2.80244     1.85980
 Zero-point vibrational energy     241440.7 (Joules/Mol)
                                   57.70571 (Kcal/Mol)
 Warning -- explicit consideration of   6 degrees of freedom as
           vibrations may cause significant error
 Vibrational temperatures:    274.59   523.40   651.46   652.50   752.95
          (Kelvin)            859.52   920.36  1148.75  1168.68  1223.11
                             1331.03  1377.93  1482.88  1492.48  1528.58
                             1561.69  1669.60  1686.77  1867.19  1996.04
                             2080.84  2138.66  2276.02  2290.88  2363.92
                             4467.84  4519.18  4541.04  4612.13  4617.23

 Zero-point correction=                           0.091960 (Hartree/Particle)
 Thermal correction to Energy=                    0.097254
 Thermal correction to Enthalpy=                  0.098198
 Thermal correction to Gibbs Free Energy=         0.063055
 Sum of electronic and zero-point Energies=           -306.536795
 Sum of electronic and thermal Energies=              -306.531501
 Sum of electronic and thermal Enthalpies=            -306.530557
 Sum of electronic and thermal Free Energies=         -306.565700

                     E (Thermal)             CV                S
                      KCal/Mol        Cal/Mol-Kelvin    Cal/Mol-Kelvin
 Total                   61.028             20.331             73.964
 Electronic               0.000              0.000              0.000
 Translational            0.889              2.981             39.503
 Rotational               0.889              2.981             26.814
 Vibrational             59.250             14.369              7.648
 Vibration     1          0.634              1.852              2.220
 Vibration     2          0.737              1.547              1.106
 Vibration     3          0.811              1.355              0.787
 Vibration     4          0.812              1.353              0.785
 Vibration     5          0.878              1.198              0.602
 Vibration     6          0.955              1.037              0.454

 Optimization completed.
    -- Stationary point found.
 Normal termination of Gaussian DV at Mon Nov  6 21:20:18 2017.
