 ----------------------------------------------------------------------
 # CAM-B3LYP/6-31+G* Geom=AllCheck opt=tight freq=(saveNM,HPModes) SCRF
 (Solvent=Benzene)
 ----------------------------------------------------------------------

 Structure from the checkpoint file:  "nile_red_gs.chk"
 --------------------------
 pCT- Geometry Optimization
 --------------------------
 Charge =  0 Multiplicity = 1

 SCF Done:  E(RCAM-B3LYP) =  -1032.41512846     A.U. after   17 cycles
 SCF Done:  E(RCAM-B3LYP) =  -1032.41933206     A.U. after   15 cycles
 SCF Done:  E(RCAM-B3LYP) =  -1032.41985520     A.U. after   13 cycles
 SCF Done:  E(RCAM-B3LYP) =  -1032.41988190     A.U. after   13 cycles
 SCF Done:  E(RCAM-B3LYP) =  -1032.41989532     A.U. after   12 cycles
 SCF Done:  E(RCAM-B3LYP) =  -1032.41990571     A.U. after   11 cycles
 SCF Done:  E(RCAM-B3LYP) =  -1032.41990748     A.U. after   11 cycles
 SCF Done:  E(RCAM-B3LYP) =  -1032.41990751     A.U. after    8 cycles
 SCF Done:  E(RCAM-B3LYP) =  -1032.41990751     A.U. after    8 cycles
 SCF Done:  E(RCAM-B3LYP) =  -1032.41990752     A.U. after    7 cycles
 SCF Done:  E(RCAM-B3LYP) =  -1032.41990751     A.U. after    8 cycles
 SCF Done:  E(RCAM-B3LYP) =  -1032.41990751     A.U. after    5 cycles
 SCF Done:  E(RCAM-B3LYP) =  -1032.41990751     A.U. after    8 cycles
 SCF Done:  E(RCAM-B3LYP) =  -1032.41990751     A.U. after    5 cycles
 SCF Done:  E(RCAM-B3LYP) =  -1032.41990751     A.U. after    8 cycles
 SCF Done:  E(RCAM-B3LYP) =  -1032.41990751     A.U. after    5 cycles
 Optimization completed.
    -- Stationary point found.
 Normal termination of Gaussian DV at Thu Feb  6 08:03:07 2020.

 ----------------------------------------------------------------------
 #N Geom=AllCheck Guess=TCheck SCRF=Check GenChk RCAM-B3LYP/6-31+G(d) F
 req
 ----------------------------------------------------------------------

 Structure from the checkpoint file:  "nile_red_gs.chk"
 --------------------------
 pCT- Geometry Optimization
 --------------------------
 Charge =  0 Multiplicity = 1

                         Standard orientation:
 ---------------------------------------------------------------------
 Center     Atomic      Atomic             Coordinates (Angstroms)
 Number     Number       Type             X           Y           Z
 ---------------------------------------------------------------------
      1          8           0        0.084133    1.364687    0.145224
      2          8           0        4.550912    2.726203    0.297290
      3          7           0       -4.505447    0.073405   -0.006815
      4          7           0        0.914498   -1.287325   -0.129955
      5          6           0       -3.177604   -0.255185   -0.038143
      6          6           0       -0.846023    0.369762    0.041271
      7          6           0        1.792068   -0.341315   -0.028235
      8          6           0       -0.419948   -0.956562   -0.100177
      9          6           0       -5.553283   -0.912612   -0.247673
     10          6           0       -4.953830    1.435130    0.260843
     11          6           0       -2.176626    0.733643    0.070320
     12          6           0        3.229590   -0.644384   -0.054476
     13          6           0        1.408415    1.063144    0.116212
     14          6           0       -2.753375   -1.607596   -0.178602
     15          6           0        4.167695    0.394687    0.056358
     16          6           0       -1.417553   -1.936279   -0.209811
     17          6           0        2.301571    2.070311    0.222465
     18          6           0        3.729728    1.812734    0.200434
     19          6           0       -6.003015   -1.648545    1.013088
     20          6           0       -5.051862    2.304471   -0.991611
     21          6           0        3.678471   -1.963493   -0.189225
     22          6           0        5.533720    0.103338    0.031980
     23          6           0        5.035867   -2.240356   -0.212365
     24          6           0        5.969060   -1.205355   -0.101485
     25          1           0       -6.402412   -0.379645   -0.686557
     26          1           0       -5.219896   -1.619508   -1.012150
     27          1           0       -5.935775    1.364707    0.738918
     28          1           0       -4.294300    1.894595    1.002328
     29          1           0       -2.410193    1.786131    0.155580
     30          1           0       -3.482561   -2.403647   -0.243794
     31          1           0       -1.107718   -2.971621   -0.312159
     32          1           0        1.969878    3.097134    0.328005
     33          1           0       -6.384290   -0.944390    1.759642
     34          1           0       -5.176988   -2.203688    1.467032
     35          1           0       -6.803439   -2.357117    0.775085
     36          1           0       -4.081632    2.403196   -1.486889
     37          1           0       -5.753840    1.871054   -1.711346
     38          1           0       -5.407930    3.306936   -0.731863
     39          1           0        2.947125   -2.759065   -0.274614
     40          1           0        6.236088    0.925182    0.120081
     41          1           0        5.373804   -3.267057   -0.317233
     42          1           0        7.031974   -1.426102   -0.119813
 ---------------------------------------------------------------------

 SCF Done:  E(RCAM-B3LYP) =  -1032.41990751     A.U. after    1 cycles

 The electronic state is 1-A.
 Alpha  occ. eigenvalues --  -19.31115 -19.20482 -14.44661 -14.44107 -10.36358
 Alpha  occ. eigenvalues --  -10.35315 -10.35098 -10.33510 -10.33311 -10.30783
 Alpha  occ. eigenvalues --  -10.30728 -10.30529 -10.29107 -10.28569 -10.28076
 Alpha  occ. eigenvalues --  -10.27796 -10.27574 -10.27559 -10.27528 -10.27487
 Alpha  occ. eigenvalues --  -10.27318 -10.26744 -10.26303 -10.26244  -1.21561
 Alpha  occ. eigenvalues --   -1.11157  -1.05697  -1.05041  -0.97118  -0.94960
 Alpha  occ. eigenvalues --   -0.91079  -0.87354  -0.86411  -0.85803  -0.84370
 Alpha  occ. eigenvalues --   -0.83156  -0.80818  -0.76358  -0.75318  -0.73500
 Alpha  occ. eigenvalues --   -0.72369  -0.70683  -0.69784  -0.67397  -0.64824
 Alpha  occ. eigenvalues --   -0.63449  -0.61646  -0.60272  -0.59625  -0.57805
 Alpha  occ. eigenvalues --   -0.56287  -0.55978  -0.54700  -0.53506  -0.53266
 Alpha  occ. eigenvalues --   -0.52202  -0.51447  -0.51061  -0.50420  -0.49947
 Alpha  occ. eigenvalues --   -0.49408  -0.49125  -0.48982  -0.47939  -0.47417
 Alpha  occ. eigenvalues --   -0.46731  -0.46591  -0.45479  -0.45212  -0.44510
 Alpha  occ. eigenvalues --   -0.43512  -0.42930  -0.42817  -0.42633  -0.41746
 Alpha  occ. eigenvalues --   -0.41549  -0.38128  -0.34763  -0.33647  -0.31912
 Alpha  occ. eigenvalues --   -0.31761  -0.31562  -0.29302  -0.24512
 Alpha virt. eigenvalues --   -0.06279   0.00020   0.02259   0.02292   0.02890
 Alpha virt. eigenvalues --    0.03627   0.03663   0.04132   0.04540   0.04714
 Alpha virt. eigenvalues --    0.05428   0.05650   0.06238   0.06468   0.06519

 Mulliken charges:
               1
     1  O   -0.470596
     2  O   -0.578796
     3  N   -0.122231
     4  N   -0.278271
     5  C    0.588190
     6  C    0.274658
     7  C    0.466333
     8  C    0.396360
     9  C   -0.323358
    10  C   -0.348875
    11  C   -0.606616
    12  C    0.418386
    13  C    0.671160
    14  C   -0.137295
    15  C    0.295568
    16  C   -0.768774
    17  C   -0.602169
    18  C    0.020069
    19  C   -0.610090
    20  C   -0.604290
    21  C   -0.431755
    22  C   -0.129191
    23  C   -0.453791
    24  C   -0.549571
    25  H    0.219841
    26  H    0.213082
    27  H    0.219723
    28  H    0.213521
    29  H    0.206643
    30  H    0.195255
    31  H    0.215727
    32  H    0.224519
    33  H    0.216320
    34  H    0.222230
    35  H    0.213547
    36  H    0.224244
    37  H    0.215104
    38  H    0.214351
    39  H    0.232367
    40  H    0.233958
    41  H    0.201477
    42  H    0.203035
 Sum of Mulliken charges =  -0.00000

 Dipole moment (field-independent basis, Debye):
    X=             -9.5532    Y=             -3.6418    Z=             -0.4177  Tot=             10.2323
 Quadrupole moment (field-independent basis, Debye-Ang):
   XX=           -119.8935   YY=           -144.3487   ZZ=           -146.0244
   XY=            -22.6165   XZ=             -2.1286   YZ=              0.2194

  Exact polarizability: 641.979  43.383 308.209   5.627  12.659 154.148
 Approx polarizability: 525.963  52.727 346.060   7.062  18.326 180.735

                      1                      2                      3
                      A                      A                      A
 Frequencies --     30.2726                36.2771                66.3261
 Red. masses --      4.6435                 4.6163                 4.2992
 Frc consts  --      0.0025                 0.0036                 0.0111
 IR Inten    --      1.9061                 0.3402                 0.7912

                      4                      5                      6
                      A                      A                      A
 Frequencies --     73.6843                83.8918               100.9247
 Red. masses --      3.6028                 4.2067                 3.3262
 Frc consts  --      0.0115                 0.0174                 0.0200
 IR Inten    --      0.2239                 0.1214                 0.5081

                      7                      8                      9
                      A                      A                      A
 Frequencies --    118.3305               132.5039               158.6220
 Red. masses --      4.4389                 3.4284                 5.8999
 Frc consts  --      0.0366                 0.0355                 0.0875
 IR Inten    --      1.6151                 1.7821                 0.3191

                     10                     11                     12
                      A                      A                      A
 Frequencies --    176.6504               197.3318               220.6084
 Red. masses --      4.8061                 2.0120                 1.2520
 Frc consts  --      0.0884                 0.0462                 0.0359
 IR Inten    --      4.4232                 0.6631                 0.0267

                     13                     14                     15
                      A                      A                      A
 Frequencies --    225.4969               235.1825               265.9860
 Red. masses --      2.2863                 1.8751                 6.0017
 Frc consts  --      0.0685                 0.0611                 0.2502
 IR Inten    --      2.2005                 0.3138                 0.2668

                     16                     17                     18
                      A                      A                      A
 Frequencies --    291.4396               317.4213               341.6089
 Red. masses --      3.5275                 4.6992                 3.4630
 Frc consts  --      0.1765                 0.2790                 0.2381
 IR Inten    --      3.2143                 8.7171                 6.6604

                     19                     20                     21
                      A                      A                      A
 Frequencies --    361.8598               373.7642               413.3606
 Red. masses --      5.0951                 5.5138                 4.4655
 Frc consts  --      0.3931                 0.4538                 0.4496
 IR Inten    --      6.4259                16.6526                21.5971

                     22                     23                     24
                      A                      A                      A
 Frequencies --    436.1949               442.5962               446.3620
 Red. masses --      3.4731                 3.6788                 6.2595
 Frc consts  --      0.3893                 0.4246                 0.7348
 IR Inten    --     16.0847                 1.9777                 2.7638

                     25                     26                     27
                      A                      A                      A
 Frequencies --    470.7670               488.7413               502.6334
 Red. masses --      3.2511                 5.9144                 5.6345
 Frc consts  --      0.4245                 0.8324                 0.8387
 IR Inten    --      5.9886                20.8045                 2.5005

                     28                     29                     30
                      A                      A                      A
 Frequencies --    528.0893               536.2176               561.5659
 Red. masses --      3.9024                 2.9871                 3.3100
 Frc consts  --      0.6412                 0.5060                 0.6150
 IR Inten    --      3.1194                13.5005                23.4844

                     31                     32                     33
                      A                      A                      A
 Frequencies --    601.6724               610.9563               647.4802
 Red. masses --      9.0204                 6.5094                 3.9393
 Frc consts  --      1.9240                 1.4316                 0.9730
 IR Inten    --     10.4469                14.5769                 6.7079

                     34                     35                     36
                      A                      A                      A
 Frequencies --    661.5966               679.6886               684.9000
 Red. masses --      5.8663                 6.5518                 3.5021
 Frc consts  --      1.5129                 1.7833                 0.9679
 IR Inten    --     10.2933                31.1994                 4.6491

                     37                     38                     39
                      A                      A                      A
 Frequencies --    711.6127               737.4028               743.7390
 Red. masses --      3.4605                 5.2136                 4.1813
 Frc consts  --      1.0325                 1.6703                 1.3627
 IR Inten    --     12.1226                 8.0782                 4.8374

                     40                     41                     42
                      A                      A                      A
 Frequencies --    768.0953               769.3992               803.8758
 Red. masses --      5.8844                 4.1582                 1.2399
 Frc consts  --      2.0454                 1.4503                 0.4721
 IR Inten    --      7.5468                 4.4542                 3.3682

                     43                     44                     45
                      A                      A                      A
 Frequencies --    806.4800               807.6671               825.9722
 Red. masses --      1.4858                 1.1946                 3.0663
 Frc consts  --      0.5694                 0.4591                 1.2325
 IR Inten    --     66.8514                14.4345                12.3626

                     46                     47                     48
                      A                      A                      A
 Frequencies --    830.9037               853.1506               874.4708
 Red. masses --      1.7077                 1.6661                 1.5573
 Frc consts  --      0.6946                 0.7145                 0.7016
 IR Inten    --     32.9043                44.5506                43.3227

                     49                     50                     51
                      A                      A                      A
 Frequencies --    879.2937               904.0635               923.0486
 Red. masses --      4.9144                 3.0015                 1.3652
 Frc consts  --      2.2387                 1.4454                 0.6853
 IR Inten    --     35.5550                11.3959                 0.0084

                     52                     53                     54
                      A                      A                      A
 Frequencies --    953.1069               980.3072               985.8193
 Red. masses --      2.1089                 2.9231                 1.3108
 Frc consts  --      1.1287                 1.6551                 0.7505
 IR Inten    --      2.3025                13.9890                 1.9005

                     55                     56                     57
                      A                      A                      A
 Frequencies --   1014.3922              1034.5392              1038.5721
 Red. masses --      1.3736                 4.8465                 1.3268
 Frc consts  --      0.8328                 3.0561                 0.8432
 IR Inten    --      1.7291                87.2920                 0.0094

                     58                     59                     60
                      A                      A                      A
 Frequencies --   1053.6497              1078.0011              1113.9665
 Red. masses --      2.5258                 2.1011                 2.0379
 Frc consts  --      1.6521                 1.4386                 1.4899
 IR Inten    --    115.9103                 1.4542                13.3007

                     61                     62                     63
                      A                      A                      A
 Frequencies --   1115.3804              1116.6974              1135.8357
 Red. masses --      2.5840                 1.8989                 1.6574
 Frc consts  --      1.8941                 1.3952                 1.2598
 IR Inten    --    105.7725                13.8375                16.6929

                     64                     65                     66
                      A                      A                      A
 Frequencies --   1152.9986              1170.3540              1191.2425
 Red. masses --      2.0068                 1.5870                 1.2599
 Frc consts  --      1.5719                 1.2808                 1.0534
 IR Inten    --    449.1098                85.6552                 1.5919

                     67                     68                     69
                      A                      A                      A
 Frequencies --   1192.4631              1227.5944              1236.8456
 Red. masses --      1.3749                 2.3280                 2.9207
 Frc consts  --      1.1519                 2.0670                 2.6325
 IR Inten    --      3.3682                62.8517                74.9939

                     70                     71                     72
                      A                      A                      A
 Frequencies --   1256.3410              1272.3779              1300.3387
 Red. masses --      2.2822                 2.2155                 1.5586
 Frc consts  --      2.1224                 2.1132                 1.5528
 IR Inten    --     15.7322               101.6672               206.6325

                     73                     74                     75
                      A                      A                      A
 Frequencies --   1317.9860              1328.7386              1341.9862
 Red. masses --      1.8744                 1.5533                 1.7060
 Frc consts  --      1.9184                 1.6158                 1.8102
 IR Inten    --    230.5775               148.0890                39.0627

                     76                     77                     78
                      A                      A                      A
 Frequencies --   1354.3480              1356.5301              1375.2570
 Red. masses --      2.6485                 5.2359                 3.8011
 Frc consts  --      2.8623                 5.6768                 4.2357
 IR Inten    --     53.7849               535.4054                41.9500

                     79                     80                     81
                      A                      A                      A
 Frequencies --   1387.2370              1409.3813              1419.2574
 Red. masses --      4.4994                 1.4317                 1.4489
 Frc consts  --      5.1016                 1.6756                 1.7195
 IR Inten    --     59.3181                27.2958               355.6065

                     82                     83                     84
                      A                      A                      A
 Frequencies --   1428.6790              1442.5125              1445.2201
 Red. masses --      2.4982                 1.2906                 1.2738
 Frc consts  --      3.0043                 1.5823                 1.5675
 IR Inten    --      6.3216                48.5021                42.8889

                     85                     86                     87
                      A                      A                      A
 Frequencies --   1469.6759              1510.7295              1516.8548
 Red. masses --      2.3341                 1.9669                 1.1451
 Frc consts  --      2.9704                 2.6449                 1.5523
 IR Inten    --    593.5641                26.8032                 1.1155

                     88                     89                     90
                      A                      A                      A
 Frequencies --   1517.5480              1521.9014              1524.1467
 Red. masses --      1.0528                 1.3148                 2.1216
 Frc consts  --      1.4285                 1.7942                 2.9038
 IR Inten    --      2.8089                 6.5097                42.2808

                     91                     92                     93
                      A                      A                      A
 Frequencies --   1525.3980              1538.0546              1541.4518
 Red. masses --      1.0877                 2.4881                 1.2611
 Frc consts  --      1.4911                 3.4678                 1.7655
 IR Inten    --     54.2394                22.5690                16.8360

                     94                     95                     96
                      A                      A                      A
 Frequencies --   1555.6071              1586.8461              1605.8532
 Red. masses --      1.2214                 3.1187                 7.8590
 Frc consts  --      1.7414                 4.6270                11.9406
 IR Inten    --      6.8670                97.3425              1309.9713

                     97                     98                     99
                      A                      A                      A
 Frequencies --   1635.8314              1653.0266              1671.6592
 Red. masses --      7.7621                 7.3775                 7.4643
 Frc consts  --     12.2380                11.8773                12.2895
 IR Inten    --    567.3329                53.5634              1570.1261

                    100                    101                    102
                      A                      A                      A
 Frequencies --   1686.8970              1728.8788              1735.7151
 Red. masses --      6.4442                10.2369                 9.0955
 Frc consts  --     10.8044                18.0281                16.1449
 IR Inten    --    170.8568               298.1921               411.1702

                    103                    104                    105
                      A                      A                      A
 Frequencies --   3076.3083              3076.7136              3089.0464
 Red. masses --      1.0361                 1.0361                 1.0629
 Frc consts  --      5.7773                 5.7789                 5.9757
 IR Inten    --     31.2214                25.8638                45.6968

                    106                    107                    108
                      A                      A                      A
 Frequencies --   3098.1055              3127.3372              3130.0974
 Red. masses --      1.0629                 1.1036                 1.1040
 Frc consts  --      6.0110                 6.3591                 6.3726
 IR Inten    --     73.5282                 3.1055                 4.0214

                    109                    110                    111
                      A                      A                      A
 Frequencies --   3146.4629              3146.8117              3155.7553
 Red. masses --      1.1024                 1.1028                 1.1042
 Frc consts  --      6.4305                 6.4344                 6.4792
 IR Inten    --     61.2043                24.5502                 6.1704

                    112                    113                    114
                      A                      A                      A
 Frequencies --   3157.1959              3216.1899              3230.4680
 Red. masses --      1.1041                 1.0878                 1.0927
 Frc consts  --      6.4843                 6.6297                 6.7188
 IR Inten    --     91.3113                 4.0753                20.5512

                    115                    116                    117
                      A                      A                      A
 Frequencies --   3231.9943              3247.6850              3248.7276
 Red. masses --      1.0913                 1.0935                 1.0928
 Frc consts  --      6.7162                 6.7952                 6.7957
 IR Inten    --      3.8235                 7.8448                 0.2968

                    118                    119                    120
                      A                      A                      A
 Frequencies --   3251.2230              3270.3608              3271.0947
 Red. masses --      1.0944                 1.0915                 1.0908
 Frc consts  --      6.8156                 6.8778                 6.8768
 IR Inten    --     11.0335                11.7886                 8.9241

 - Thermochemistry -
 -------------------
 Temperature   298.150 Kelvin.  Pressure   1.00000 Atm.
 Atom     1 has atomic number  8 and mass  15.99491

 Molecular mass:   318.13683 amu.
 Principal axes and moments of inertia in atomic units:
                           1         2         3
     Eigenvalues --  2752.45269********************
           X            0.99998  -0.00660  -0.00087
           Y            0.00659   0.99994  -0.00906
           Z            0.00093   0.00905   0.99996
 This molecule is an asymmetric top.
 Rotational symmetry number  1.
 Warning -- assumption of classical behavior for rotation
           may cause significant error
 Rotational temperatures (Kelvin)      0.03147     0.00513     0.00448
 Rotational constants (GHZ):           0.65568     0.10681     0.09342
 Zero-point vibrational energy     901301.2 (Joules/Mol)
                                  215.41615 (Kcal/Mol)
 Warning -- explicit consideration of  32 degrees of freedom as
           vibrations may cause significant error
 Vibrational temperatures:     43.56    52.19    95.43   106.02   120.70
          (Kelvin)            145.21   170.25   190.64   228.22   254.16
                              283.92   317.41   324.44   338.38   382.69
                              419.32   456.70   491.50   520.64   537.76
                              594.73   627.59   636.80   642.22   677.33
                              703.19   723.18   759.80   771.50   807.97
                              865.67   879.03   931.58   951.89   977.92
                              985.42  1023.85  1060.96  1070.07  1105.12
                             1106.99  1156.60  1160.34  1162.05  1188.39
                             1195.49  1227.49  1258.17  1265.11  1300.75
                             1328.06  1371.31  1410.44  1418.37  1459.48
                             1488.47  1494.27  1515.97  1551.00  1602.75
                             1604.78  1606.68  1634.21  1658.91  1683.88
                             1713.93  1715.69  1766.23  1779.55  1807.59
                             1830.67  1870.90  1896.29  1911.76  1930.82
                             1948.60  1951.74  1978.69  1995.92  2027.79
                             2041.99  2055.55  2075.45  2079.35  2114.54
                             2173.60  2182.42  2183.41  2189.68  2192.91
                             2194.71  2212.92  2217.81  2238.17  2283.12
                             2310.46  2353.60  2378.34  2405.14  2427.07
                             2487.47  2497.31  4426.12  4426.70  4444.45
                             4457.48  4499.54  4503.51  4527.06  4527.56
                             4540.43  4542.50  4627.38  4647.92  4650.12
                             4672.69  4674.19  4677.78  4705.32  4706.38

 Zero-point correction=                           0.343287 (Hartree/Particle)
 Thermal correction to Energy=                    0.363042
 Thermal correction to Enthalpy=                  0.363986
 Thermal correction to Gibbs Free Energy=         0.294698
 Sum of electronic and zero-point Energies=          -1032.076620
 Sum of electronic and thermal Energies=             -1032.056865
 Sum of electronic and thermal Enthalpies=           -1032.055921
 Sum of electronic and thermal Free Energies=        -1032.125209

                     E (Thermal)             CV                S
                      KCal/Mol        Cal/Mol-Kelvin    Cal/Mol-Kelvin
 Total                  227.812             78.367            145.829
 Electronic               0.000              0.000              0.000
 Translational            0.889              2.981             43.168
 Rotational               0.889              2.981             35.151
 Vibrational            226.035             72.405             67.511
 Vibration     1          0.594              1.984              5.811
 Vibration     2          0.594              1.982              5.453
 Vibration     3          0.598              1.970              4.260
 Vibration     4          0.599              1.966              4.052
 Vibration     5          0.601              1.960              3.798
 Vibration     6          0.604              1.948              3.436
 Vibration     7          0.608              1.934              3.127
 Vibration     8          0.613              1.921              2.909
 Vibration     9          0.621              1.893              2.566
 Vibration    10          0.628              1.871              2.364
 Vibration    11          0.637              1.844              2.158
 Vibration    12          0.647              1.810              1.954
 Vibration    13          0.650              1.802              1.915
 Vibration    14          0.655              1.787              1.839
 Vibration    15          0.672              1.735              1.622
 Vibration    16          0.687              1.690              1.466
 Vibration    17          0.704              1.640              1.323
 Vibration    18          0.721              1.592              1.205
 Vibration    19          0.736              1.551              1.114
 Vibration    20          0.745              1.526              1.064
 Vibration    21          0.777              1.441              0.915
 Vibration    22          0.797              1.391              0.839
 Vibration    23          0.802              1.377              0.818
 Vibration    24          0.806              1.369              0.807
 Vibration    25          0.828              1.315              0.735
 Vibration    26          0.845              1.275              0.687
 Vibration    27          0.858              1.244              0.652
 Vibration    28          0.883              1.188              0.591
 Vibration    29          0.891              1.170              0.573
 Vibration    30          0.917              1.114              0.521
 Vibration    31          0.960              1.028              0.447
 Vibration    32          0.970              1.009              0.431

 Optimization completed.
    -- Stationary point found.
 Normal termination of Gaussian DV at Thu Feb  6 09:08:56 2020.
